                               Psi4 1.5 release

  ==> Input File <==

--------------------------------------------------------------------------
#
#   Psi4 Calculation input file
#
#
memory 2000 mb

molecule {
 no_com
 0 1
 C      -1.806    -0.323     0.197
 C      -0.676     0.362    -0.013
 C       0.633    -0.329    -0.023
 O       1.680     0.293    -0.153
 H      -1.818    -1.397     0.369
 H      -2.764     0.189     0.208
 H      -0.662     1.436    -0.178
 H       0.611    -1.423     0.097
symmetry c1
}
set {
 basis 6-31G*
 geom_maxiter 200
 reference RHF
 WRITER_FILE_LABEL Psi4
 NORMAL_MODES_WRITE true
}
E, wfn = optimize('B3LYP', return_wfn=True)
wfn.write_molden('Psi4.molden')
oeprop(wfn, 'DIPOLE', 'QUADRUPOLE', 'MULTIPOLE(4)', 'MO_EXTENTS', 'MULLIKEN_CHARGES', 'LOWDIN_CHARGES', 'WIBERG_LOWDIN_INDICES', 'MAYER_INDICES', 'NO_OCCUPATIONS')
print_variables()
scf_e, scf_wfn = frequencies('B3LYP', return_wfn=True, dertype=1)

--------------------------------------------------------------------------

    Molecular point group: c1
  Charge       = 0
  Multiplicity = 1
  Basis Set: 6-31G*
    Blend: 6-31G*
  Basis Set: (6-31G* AUX)
    Blend: CC-PVDZ-JKFIT
  @DF-RKS Final Energy:  -191.91113798694400
    Total Energy =                       -191.9111379869439986
    Molecular point group: c1
  Basis Set: 6-31G*
    Blend: 6-31G*
  Basis Set: (6-31G* AUX)
    Blend: CC-PVDZ-JKFIT
  Basis Set: 6-31G*
    Blend: 6-31G*
  Basis Set: (6-31G* AUX)
    Blend: CC-PVDZ-JKFIT
  @DF-RKS Final Energy:  -191.91183897035197
    Total Energy =                       -191.9118389703519654
  Basis Set: 6-31G*
    Blend: 6-31G*
  Basis Set: (6-31G* AUX)
    Blend: CC-PVDZ-JKFIT
  Basis Set: 6-31G*
    Blend: 6-31G*
  @DF-RKS Final Energy:  -191.90959281050107
    Total Energy =                       -191.9095928105010671
  @DF-RKS Final Energy:  -191.91187861425732
    Total Energy =                       -191.9118786142573185
  @DF-RKS Final Energy:  -191.91193981062054
    Total Energy =                       -191.9119398106205381
  @DF-RKS Final Energy:  -191.91194139704797
    Total Energy =                       -191.9119413970479684
  **** Optimization is complete! (in 6 steps) ****
    Final optimized geometry and variables:
 Dipole X            :          2.9036915           -4.0942433           -1.1905518
 Dipole Y            :          0.9395266           -1.2669879           -0.3274613
 Dipole Z            :          0.1852900           -0.0358484            0.1494416

  Lowdin Charges: (a.u.)
   Center  Symbol    Alpha    Beta     Spin     Total
       1     C     3.13426  3.13426  0.00000 -0.26852
       2     C     3.08964  3.08964  0.00000 -0.17928
       3     C     2.96674  2.96674  0.00000  0.06652
       4     O     4.11714  4.11714  0.00000 -0.23427
       5     H     0.41766  0.41766  0.00000  0.16468
       6     H     0.41550  0.41550  0.00000  0.16900
       7     H     0.41527  0.41527  0.00000  0.16945
       8     H     0.44379  0.44379  0.00000  0.11242

  Total alpha = 15.00000, Total beta = 15.00000, Total charge =  0.00000

  @DF-RKS Final Energy:  -191.91194139704754
    Total Energy =                       -191.9119413970475421
  @DF-RKS Final Energy:  -191.91194139704754
    Total Energy =                       -191.9119413970475421
  @DF-RKS Final Energy:  -191.91194014794948
    Total Energy =                       -191.9119401479494798
  @DF-RKS Final Energy:  -191.91194047024121
    Total Energy =                       -191.9119404702412055
  @DF-RKS Final Energy:  -191.91193982071340
    Total Energy =                       -191.9119398207133997
  @DF-RKS Final Energy:  -191.91193983269483
    Total Energy =                       -191.9119398326948271
  @DF-RKS Final Energy:  -191.91194103776490
    Total Energy =                       -191.9119410377649046
  @DF-RKS Final Energy:  -191.91194108173036
    Total Energy =                       -191.9119410817303617
  @DF-RKS Final Energy:  -191.91194085466131
    Total Energy =                       -191.9119408546613101
  @DF-RKS Final Energy:  -191.91194038489189
    Total Energy =                       -191.9119403848918921
  @DF-RKS Final Energy:  -191.91193947424190
    Total Energy =                       -191.9119394742419047
  @DF-RKS Final Energy:  -191.91193985588262
    Total Energy =                       -191.9119398558826219
  @DF-RKS Final Energy:  -191.91194101983396
    Total Energy =                       -191.9119410198339608
  @DF-RKS Final Energy:  -191.91194108231127
    Total Energy =                       -191.9119410823112730
  @DF-RKS Final Energy:  -191.91194105460647
    Total Energy =                       -191.9119410546064728
  @DF-RKS Final Energy:  -191.91194094643856
    Total Energy =                       -191.9119409464385626
  @DF-RKS Final Energy:  -191.91194006481874
    Total Energy =                       -191.9119400648187366
  @DF-RKS Final Energy:  -191.91194024388722
    Total Energy =                       -191.9119402438872157
  @DF-RKS Final Energy:  -191.91193865415144
    Total Energy =                       -191.9119386541514416
  @DF-RKS Final Energy:  -191.91193896110087
    Total Energy =                       -191.9119389611008728
  @DF-RKS Final Energy:  -191.91194108664922
    Total Energy =                       -191.9119410866492217
  @DF-RKS Final Energy:  -191.91194101632323
    Total Energy =                       -191.9119410163232260
  @DF-RKS Final Energy:  -191.91193998797704
    Total Energy =                       -191.9119399879770356
  @DF-RKS Final Energy:  -191.91194012822018
    Total Energy =                       -191.9119401282201807
  @DF-RKS Final Energy:  -191.91193752974732
    Total Energy =                       -191.9119375297473198
  @DF-RKS Final Energy:  -191.91193752083561
    Total Energy =                       -191.9119375208356075
  @DF-RKS Final Energy:  -191.91194104139319
    Total Energy =                       -191.9119410413932201
  @DF-RKS Final Energy:  -191.91194098783495
    Total Energy =                       -191.9119409878349529
  @DF-RKS Final Energy:  -191.91193854908556
    Total Energy =                       -191.9119385490855620
  @DF-RKS Final Energy:  -191.91193865579939
    Total Energy =                       -191.9119386557993892
  @DF-RKS Final Energy:  -191.91193947936114
    Total Energy =                       -191.9119394793611377
  @DF-RKS Final Energy:  -191.91193952765897
    Total Energy =                       -191.9119395276589728
  Basis Set: (6-31G* AUX)
    Blend: CC-PVDZ-JKFIT
  Basis Set: 6-31G*
    Blend: 6-31G*
  Basis Set: (6-31G* AUX)
    Blend: CC-PVDZ-JKFIT
  @DF-RKS Final Energy:  -191.91193795405414
    Total Energy =                       -191.9119379540541388
  Basis Set: 6-31G*
    Blend: 6-31G*
  Basis Set: (6-31G* AUX)
    Blend: CC-PVDZ-JKFIT
    Molecular point group: c1
  Charge       = 0
  Multiplicity = 1
  Basis Set: 6-31G*
    Blend: 6-31G*
  Basis Set: (6-31G* AUX)
    Blend: CC-PVDZ-JKFIT

    Orbital Energies [Eh]
    ---------------------

    Doubly Occupied:

       1A    -19.147954     2A    -10.277686     3A    -10.221658
       4A    -10.211025     5A     -1.042303     6A     -0.803836
       7A     -0.649672     8A     -0.575347     9A     -0.478303
      10A     -0.475865    11A     -0.419108    12A     -0.397631
      13A     -0.395644    14A     -0.293405    15A     -0.257105

  @DF-RKS Final Energy:  -191.91193770646677

   => Energetics <=

    Nuclear Repulsion Energy =            102.8402484472907332
    One-Electron Energy =                -462.9241795607305221
    Two-Electron Energy =                 189.4342902923272334
    DFT Exchange-Correlation Energy =     -21.2622968853541927
    Empirical Dispersion Energy =           0.0000000000000000
    VV10 Nonlocal Energy =                  0.0000000000000000
    Total Energy =                       -191.9119377064667731

  Dipole Moment: [D]
     X:    -3.0257      Y:    -0.8339      Z:     0.3800     Total:     3.1614

    Molecular point group: c1

    Geometry (in Angstrom), charge = 0, multiplicity = 1:

       Center              X                  Y                   Z               Mass
    ------------   -----------------  -----------------  -----------------  -----------------
         C           -1.807403508153    -0.315494610296     0.190989623788    12.000000000000
         C           -0.674683968717     0.369617207878    -0.003913152328    12.000000000000
         C            0.634425233888    -0.309314870865    -0.021186523274    12.000000000000
         O            1.696247283796     0.256785747399    -0.193202840439    15.994914619570
         H           -1.792987118690    -1.393484544838     0.342276943240     1.007825032230
         H           -2.781501438224     0.164111252125     0.207563399830     1.007825032230
         H           -0.663517183264     1.444656131368    -0.156841581583     1.007825032230
         H            0.587420699364    -1.408876312773     0.138314130767     1.007825032230

  Basis Set: 6-31G*
    Blend: 6-31G*
  Basis Set: (6-31G* AUX)
    Blend: CC-PVDZ-JKFIT

  -Total Gradient:
     Atom            X                  Y                   Z
    ------   -----------------  -----------------  -----------------
       1       -0.000081929728     0.000001819852    -0.000007115423
       2        0.000045077369     0.000879273295    -0.000135216773
       3       -0.000032075342    -0.000785767510     0.000131056403
       4       -0.000037644772     0.000031222001    -0.000007192537
       5        0.000004945380     0.000007759191     0.000004562280
       6        0.000011494819     0.000005022401     0.000003359613
       7        0.000108523403    -0.001148402670     0.000156759955
       8       -0.000061703668     0.001001028672    -0.000141286415

  Vibration                       7                   8                   9
  Freq [cm^-1]                 172.9963            320.1916            572.6466
  Irrep                           A                   A                   A
  Reduced mass [u]              3.4657              2.6956              4.9088
  Force const [mDyne/A]         0.0611              0.1628              0.9484

  Vibration                       10                  11                  12
  Freq [cm^-1]                 610.7106            929.3720            991.8564
  Irrep                           A                   A                   A
  Reduced mass [u]              1.1807              1.5775              1.3391
  Force const [mDyne/A]         0.2595              0.8028              0.7762

  Vibration                       13                  14                  15
  Freq [cm^-1]                1022.8611           1043.5610           1181.2308
  Irrep                           A                   A                   A
  Reduced mass [u]              1.6436              1.1685              2.0126
  Force const [mDyne/A]         1.0131              0.7498              1.6546

  Vibration                       16                  17                  18
  Freq [cm^-1]                1308.9611           1410.0146           1474.9078
  Irrep                           A                   A                   A
  Reduced mass [u]              1.4801              1.1960              1.2258
  Force const [mDyne/A]         1.4942              1.4010              1.5711

  Vibration                       19                  20                  21
  Freq [cm^-1]                1700.8964           1803.9207           2902.3787
  Irrep                           A                   A                   A
  Reduced mass [u]              4.0252              9.4281              1.0841
  Force const [mDyne/A]         6.8611             18.0763              5.3808

  Vibration                       22                  23                  24
  Freq [cm^-1]                3161.7782           3197.7198           3250.3509
  Irrep                           A                   A                   A
  Reduced mass [u]              1.0599              1.0941              1.1150
  Force const [mDyne/A]         6.2430              6.5913              6.9405

  ==> Thermochemistry Components <==

  Entropy, S
    Electronic S            0.000 [cal/(mol K)]        0.000 [J/(mol K)]       0.00000000 [mEh/K] (multiplicity = 1)
    Translational S        37.991 [cal/(mol K)]      158.955 [J/(mol K)]       0.06054261 [mEh/K] (mol. weight = 56.0262 [u], P = 101325.00 [Pa])
    Rotational S           23.355 [cal/(mol K)]       97.716 [J/(mol K)]       0.03721788 [mEh/K] (symmetry no. = 1)
    Vibrational S           5.137 [cal/(mol K)]       21.492 [J/(mol K)]       0.00818584 [mEh/K]
  Total S                  66.482 [cal/(mol K)]      278.162 [J/(mol K)]       0.10594632 [mEh/K]
  Correction S              0.000 [cal/(mol K)]        0.000 [J/(mol K)]       0.00000000 [mEh/K]

  Constant volume heat capacity, Cv
    Electronic Cv           0.000 [cal/(mol K)]        0.000 [J/(mol K)]       0.00000000 [mEh/K]
    Translational Cv        2.981 [cal/(mol K)]       12.472 [J/(mol K)]       0.00475022 [mEh/K]
    Rotational Cv           2.981 [cal/(mol K)]       12.472 [J/(mol K)]       0.00475022 [mEh/K]
    Vibrational Cv          7.750 [cal/(mol K)]       32.424 [J/(mol K)]       0.01234966 [mEh/K]
  Total Cv                 13.711 [cal/(mol K)]       57.367 [J/(mol K)]       0.02185009 [mEh/K]
  Correction Cv             0.000 [cal/(mol K)]        0.000 [J/(mol K)]       0.00000000 [mEh/K]

  Constant pressure heat capacity, Cp
    Electronic Cp           0.000 [cal/(mol K)]        0.000 [J/(mol K)]       0.00000000 [mEh/K]
    Translational Cp        4.968 [cal/(mol K)]       20.786 [J/(mol K)]       0.00791703 [mEh/K]
    Rotational Cp           2.981 [cal/(mol K)]       12.472 [J/(mol K)]       0.00475022 [mEh/K]
    Vibrational Cp          7.750 [cal/(mol K)]       32.424 [J/(mol K)]       0.01234966 [mEh/K]
  Total Cp                 15.698 [cal/(mol K)]       65.682 [J/(mol K)]       0.02501690 [mEh/K]
  Correction Cp             0.000 [cal/(mol K)]        0.000 [J/(mol K)]       0.00000000 [mEh/K]

  ==> Thermochemistry Energy Analysis <==

  Raw electronic energy, E0
  Total E0, Electronic energy at well bottom at 0 [K]                 -191.91194140 [Eh]

  Zero-point energy, ZPE_vib = Sum_i nu_i / 2
    Electronic ZPE          0.000 [kcal/mol]        0.000 [kJ/mol]       0.00000000 [Eh]
    Translational ZPE       0.000 [kcal/mol]        0.000 [kJ/mol]       0.00000000 [Eh]
    Rotational ZPE          0.000 [kcal/mol]        0.000 [kJ/mol]       0.00000000 [Eh]
    Vibrational ZPE        38.679 [kcal/mol]      161.833 [kJ/mol]       0.06163891 [Eh]       13528.177 [cm^-1]
  Correction ZPE           38.679 [kcal/mol]      161.833 [kJ/mol]       0.06163891 [Eh]       13528.177 [cm^-1]
  Total ZPE, Electronic energy at 0 [K]                               -191.85030249 [Eh]

  Thermal Energy, E (includes ZPE)
    Electronic E            0.000 [kcal/mol]        0.000 [kJ/mol]       0.00000000 [Eh]
    Translational E         0.889 [kcal/mol]        3.718 [kJ/mol]       0.00141628 [Eh]
    Rotational E            0.889 [kcal/mol]        3.718 [kJ/mol]       0.00141628 [Eh]
    Vibrational E          39.636 [kcal/mol]      165.839 [kJ/mol]       0.06316460 [Eh]
  Correction E             41.414 [kcal/mol]      173.276 [kJ/mol]       0.06599716 [Eh]
  Total E, Electronic energy at  298.15 [K]                           -191.84594424 [Eh]

  Enthalpy, H_trans = E_trans + k_B * T
    Electronic H            0.000 [kcal/mol]        0.000 [kJ/mol]       0.00000000 [Eh]
    Translational H         1.481 [kcal/mol]        6.197 [kJ/mol]       0.00236046 [Eh]
    Rotational H            0.889 [kcal/mol]        3.718 [kJ/mol]       0.00141628 [Eh]
    Vibrational H          39.636 [kcal/mol]      165.839 [kJ/mol]       0.06316460 [Eh]
  Correction H             42.006 [kcal/mol]      175.754 [kJ/mol]       0.06694134 [Eh]
  Total H, Enthalpy at  298.15 [K]                                    -191.84500006 [Eh]

  Gibbs free energy, G = H - T * S
    Electronic G            0.000 [kcal/mol]        0.000 [kJ/mol]       0.00000000 [Eh]
    Translational G        -9.846 [kcal/mol]      -41.195 [kJ/mol]      -0.01569032 [Eh]
    Rotational G           -6.074 [kcal/mol]      -25.415 [kJ/mol]      -0.00968023 [Eh]
    Vibrational G          38.105 [kcal/mol]      159.431 [kJ/mol]       0.06072399 [Eh]
  Correction G             22.185 [kcal/mol]       92.820 [kJ/mol]       0.03535344 [Eh]
  Total G, Free enthalpy at  298.15 [K]                               -191.87658795 [Eh]

*** Psi4 exiting successfully. Buy a developer a beer!
